% Model:              1p44GHz_6mm_bore_mo4.mph
% Version:            COMSOL 6.0.0.405
% Date:               Jul 23 2026, 03:16
% Dimension:          2
% Nodes:              10000
% Expressions:        2
% Description:        Arrow surface
% r                       z                        Hrad                     Haxi
7.000000000000001E-5      -0.002925000000000001    -0.023635636367534518    0.0506291103272651
2.1E-4                    -0.002925000000000001    -0.07085434234787345     0.05055405871732532
3.5000000000000005E-4     -0.002925000000000001    -0.1179180074466698      0.050408849265506456
4.900000000000001E-4      -0.002925000000000001    -0.16472717751392957     0.050188908579921754
6.3E-4                    -0.002925000000000001    -0.21117555652106856     0.0498958629376386
7.7E-4                    -0.002925000000000001    -0.25715876189132614     0.04952686414964256
9.100000000000001E-4      -0.002925000000000001    -0.30257017104610245     0.04908097869045946
0.0010500000000000002     -0.002925000000000001    -0.3473010507890057      0.04855710669683203
0.00119                   -0.002925000000000001    -0.3912409313899645      0.04795434025533431
0.00133                   -0.002925000000000001    -0.4342780284384761      0.04727162792656324
0.00147                   -0.002925000000000001    -0.47629960006417527     0.04650831144949823
0.00161                   -0.002925000000000001    -0.5171921193948601      0.04566407284306799
0.0017500000000000003     -0.002925000000000001    -0.5568422406055146      0.04473907386058111
0.00189                   -0.002925000000000001    -0.5951380143678177      0.04373436354558216
0.0020300000000000006     -0.002925000000000001    -0.6319680215367434      0.0426515257793101
0.00217                   -0.002925000000000001    -0.6672241764468557      0.04149244123640359
0.0023100000000000004     -0.002925000000000001    -0.7008022344574191      0.04025962689862442
0.0024500000000000004     -0.002925000000000001    -0.732602826656027       0.03895625635647715
0.0025900000000000003     -0.002925000000000001    -0.7625324387070141      0.03758609790297724
0.0027300000000000002     -0.002925000000000001    -0.7905045071708943      0.03615319435163733
0.00287                   -0.002925000000000001    -0.8164410011739753      0.03466259578407929
0.0030100000000000005     -0.002925000000000001    -0.8402722960408132      0.03311996480191955
0.0031500000000000005     -0.002925000000000001    -0.8619382025646724      0.03153148499300488
0.0032900000000000004     -0.002925000000000001    -0.8813891508048359      0.029903903784443377
0.0034300000000000008     -0.002925000000000001    -0.8985860863547024      0.028243961833118
0.0035700000000000007     -0.002925000000000001    -0.9135002599498518      0.0265581782384623
0.00371                   -0.002925000000000001    -0.9261180499201445      0.024856539626944382
0.00385                   -0.002925000000000001    -0.9364386092834809      0.023156514274125854
0.0039900000000000005     -0.002925000000000001    -0.9444863556525281      0.021454833466387956
0.00413                   -0.002925000000000001    -0.9502804411790359      0.019759557883897917
0.0042699999999999995     -0.002925000000000001    -0.9538536035558962      0.01807785135317414
0.00441                   -0.002925000000000001    -0.955247491862703       0.016417309721253482
0.00455                   -0.002925000000000001    -0.9545167941457013      0.01478511929025573
0.00469                   -0.002925000000000001    -0.9517272560468877      0.013188595090143992
0.00483                   -0.002925000000000001    -0.9469553899244716      0.011634447669457714
0.0049700000000000005     -0.002925000000000001    -0.9402875488471575      0.01012906254681339
0.00511                   -0.002925000000000001    -0.9318205865723806      0.008679290340596767
0.00525                   -0.002925000000000001    -0.921659255202336       0.0072910235682329474
0.00539                   -0.002925000000000001    -0.9099159535333398      0.0059693854619288
0.00553                   -0.002925000000000001    -0.8967094408186463      0.004718728050194144
0.00567                   -0.002925000000000001    -0.8821634656833064      0.003542621718313374
0.005809999999999999      -0.002925000000000001    -0.8664053661566495      0.0024437212639151777
0.00595                   -0.002925000000000001    -0.8495645032932632      0.001423755867593283
0.006090000000000001      -0.002925000000000001    -0.8317707072467319      4.83495932701917E-4
0.00623                   -0.002925000000000001    -0.8131526514931638      -3.7724191678871813E-4
0.00637                   -0.002925000000000001    -0.7938361870960147      -0.001159650279564808
0.00651                   -0.002925000000000001    -0.7739433473445541      -0.0018660889294099038
0.00665                   -0.002925000000000001    -0.7535910675997285      -0.0024991833734661177
0.006790000000000001      -0.002925000000000001    -0.7328896877857881      -0.0030621162989055567
0.00693                   -0.002925000000000001    -0.7119423361254111      -0.0035585574496598818
0.007070000000000001      -0.002925000000000001    -0.6908443040158293      -0.003992537903997065
0.00721                   -0.002925000000000001    -0.6696826629528124      -0.0043683498359711114
0.00735                   -0.002925000000000001    -0.6485368067613453      -0.004690035240495906
0.00749                   -0.002925000000000001    -0.6274761546922067      -0.004962192884400633
0.00763                   -0.002925000000000001    -0.6065626492262269      -0.00518938532926075
0.007770000000000001      -0.002925000000000001    -0.58585035075882        -0.005376028414733957
0.007910000000000002      -0.002925000000000001    -0.5653858015138895      -0.005526348299896229
0.008050000000000002      -0.002925000000000001    -0.5452084923524332      -0.005644340754230623
0.008190000000000001      -0.002925000000000001    -0.5253513963430767      -0.005733729462573263
0.00833                   -0.002925000000000001    -0.5058415172060504      -0.005797967837291362
0.00847                   -0.002925000000000001    -0.4867004763522475      -0.005840223570535929
0.008610000000000001      -0.002925000000000001    -0.4679450404450503      -0.005863390487821434
0.00875                   -0.002925000000000001    -0.4495877116644849      -0.005870126083381675
0.008890000000000002      -0.002925000000000001    -0.43163717961692444     -0.0058628896312699075
0.009030000000000002      -0.002925000000000001    -0.4140985828272646      -0.005843675452777135
0.009170000000000001      -0.002925000000000001    -0.3969743045789208      -0.005814351698145087
0.00931                   -0.002925000000000001    -0.38026420795054633     -0.005776590796362427
0.00945                   -0.002925000000000001    -0.3639659754919666      -0.005731873150437287
0.009590000000000001      -0.002925000000000001    -0.34807542451861107     -0.005681520290242168
0.00973                   -0.002925000000000001    -0.3325869326958105      -0.005626644366079594
0.009870000000000002      -0.002925000000000001    -0.3174933467907324      -0.005568312697491773
0.010010000000000002      -0.002925000000000001    -0.30278647052878666     -0.005507465123519007
0.010150000000000001      -0.002925000000000001    -0.2884572506728529      -0.005444902964370376
0.010290000000000002      -0.002925000000000001    -0.2744959091612051      -0.0053813342571281024
0.010430000000000002      -0.002925000000000001    -0.26089206710527085     -0.005317369934090077
0.010570000000000001      -0.002925000000000001    -0.24763489336998604     -0.005253545706294074
0.01071                   -0.002925000000000001    -0.23471322587026874     -0.005190324943615574
0.010850000000000002      -0.002925000000000001    -0.222115644723301       -0.005128113497822915
0.010990000000000002      -0.002925000000000001    -0.20983056505945005     -0.005067256771203994
0.011130000000000001      -0.002925000000000001    -0.19784631082300247     -0.00500805307234491
0.01127                   -0.002925000000000001    -0.18615121451977193     -0.004950764750865335
0.01141                   -0.002925000000000001    -0.17473351982124774     -0.004895585331530142
0.01155                   -0.002925000000000001    -0.16358157289764116     -0.004842699046595437
0.01169                   -0.002925000000000001    -0.15268382756006352     -0.004792263031440176
0.011830000000000002      -0.002925000000000001    -0.1420288318024738      -0.004744410140713159
0.011970000000000001      -0.002925000000000001    -0.13160527838086086     -0.004699252112671943
0.012110000000000003      -0.002925000000000001    -0.12140202745168277     -0.0046568814735245675
0.012250000000000002      -0.002925000000000001    -0.11140812722465666     -0.004617387285660334
0.012390000000000002      -0.002925000000000001    -0.10161280968141467     -0.00458083356794106
0.012530000000000001      -0.002925000000000001    -0.09200549210675919     -0.004547273256552925
0.01267                   -0.002925000000000001    -0.08257580997910366     -0.004516751016122965
0.012810000000000002      -0.002925000000000001    -0.07331362675757881     -0.00448928286742611
0.012950000000000001      -0.002925000000000001    -0.06420898601820133     -0.0044648779990762106
0.013090000000000001      -0.002925000000000001    -0.05525213292687713     -0.004443596142499669
0.01323                   -0.002925000000000001    -0.046433657016981086    -0.004425360046418514
0.01337                   -0.002925000000000001    -0.03774417632166789     -0.004410224859451504
0.013510000000000003      -0.002925000000000001    -0.02917465937392205     -0.004398154361574591
0.013650000000000002      -0.002925000000000001    -0.02071620089116851     -0.004389107893813556
0.013790000000000002      -0.002925000000000001    -0.012360224676641513    -0.004383184616830297
0.013930000000000001      -0.002925000000000001    -0.004098327210145404    -0.00438008357669982
7.000000000000001E-5      -0.002775000000000001    -0.02371384996110543     0.15204659356833153
2.1E-4                    -0.002775000000000001    -0.07108016307677391     0.15183032630639776
3.5000000000000005E-4     -0.002775000000000001    -0.11829889339388805     0.15139513018309528
4.900000000000001E-4      -0.002775000000000001    -0.1652664497954485      0.15073519746688624
6.3E-4                    -0.002775000000000001    -0.21187418711368036     0.14985366048237728
7.7E-4                    -0.002775000000000001    -0.25801743886037204     0.1487453861025697
9.100000000000001E-4      -0.002775000000000001    -0.3035919368110049      0.14740766614955378
0.0010500000000000002     -0.002775000000000001    -0.3484891811752506      0.14583690649795755
0.00119                   -0.002775000000000001    -0.39259779903073844     0.14403007372018412
0.00133                   -0.002775000000000001    -0.43580455664499945     0.14198460220770937
0.00147                   -0.002775000000000001    -0.47799683212992905     0.13969769494606563
0.00161                   -0.002775000000000001    -0.5190605651138669      0.13716822608171594
0.0017500000000000003     -0.002775000000000001    -0.5588812590211778      0.13439647021772066
0.00189                   -0.002775000000000001    -0.5973451122227217      0.13138426757882024
0.0020300000000000006     -0.002775000000000001    -0.634339946265276       0.12813527946292252
0.00217                   -0.002775000000000001    -0.6697562834037599      0.12465511130044749
0.0023100000000000004     -0.002775000000000001    -0.7034884070863975      0.1209514093228631
0.0024500000000000004     -0.002775000000000001    -0.7354354655629441      0.11703390012681938
0.0025900000000000003     -0.002775000000000001    -0.7655028375724195      0.11291441630285191
0.0027300000000000002     -0.002775000000000001    -0.7936027120932387      0.10860651078193279
0.00287                   -0.002775000000000001    -0.8196554223732785      0.10412562123601776
0.0030100000000000005     -0.002775000000000001    -0.8435903101910234      0.09948911525642118
0.0031500000000000005     -0.002775000000000001    -0.8653466705448037      0.09471540775950368
0.0032900000000000004     -0.002775000000000001    -0.8848744294622266      0.08982354686333889
0.0034300000000000008     -0.002775000000000001    -0.9021302764067437      0.08483689387501822
0.0035700000000000007     -0.002775000000000001    -0.9170903913022782      0.07977305384157968
0.00371                   -0.002775000000000001    -0.9297352621883191      0.07465519434724968
0.00385                   -0.002775000000000001    -0.9400677325916927      0.069540164172744
0.0039900000000000005     -0.002775000000000001    -0.9481124515581583      0.06442694684842717
0.00413                   -0.002775000000000001    -0.953885445332548       0.059327483825189896
0.0042699999999999995     -0.002775000000000001    -0.9574218492248612      0.05427062032259475
0.00441                   -0.002775000000000001    -0.9587630749209378      0.049275766720855256
0.00455                   -0.002775000000000001    -0.9579630089230249      0.04436631437171475
0.00469                   -0.002775000000000001    -0.9550891703706356      0.039564510189886964
0.00483                   -0.002775000000000001    -0.9502183148460851      0.03489166497128289
0.0049700000000000005     -0.002775000000000001    -0.943438658644649       0.03036787749096961
0.00511                   -0.002775000000000001    -0.9348469746666099      0.02601198837180747
0.00525                   -0.002775000000000001    -0.9245494340912592      0.0218412412927958
0.00539                   -0.002775000000000001    -0.9126599392875323      0.017870872901983022
0.00553                   -0.002775000000000001    -0.8992965384998699      0.014113763140564192
0.00567                   -0.002775000000000001    -0.8845869895296496      0.0105800414034672
0.005809999999999999      -0.002775000000000001    -0.8686611766583981      0.007277577243042167
0.00595                   -0.002775000000000001    -0.8516503349994535      0.004212095128164953
0.006090000000000001      -0.002775000000000001    -0.8336859346436291      0.0013861548247147497
0.00623                   -0.002775000000000001    -0.8148986292392921      -0.001200671766471019
0.00637                   -0.002775000000000001    -0.795416331936378       -0.003551544161044962
0.00651                   -0.002775000000000001    -0.7753627514601021      -0.005672162325430064
0.00665                   -0.002775000000000001    -0.754856054071814       -0.007570477899480219
0.006790000000000001      -0.002775000000000001    -0.734007798575305       -0.009256336162056877
0.00693                   -0.002775000000000001    -0.7129220519068892      -0.01074111260375041
0.007070000000000001      -0.002775000000000001    -0.6916947787524103      -0.01203731422311951
0.00721                   -0.002775000000000001    -0.6704134705303932      -0.013158212856042647
0.00735                   -0.002775000000000001    -0.6491569674902669      -0.014117482809941115
0.00749                   -0.002775000000000001    -0.6279954886637565      -0.01492889758935941
0.00763                   -0.002775000000000001    -0.6069908172633334      -0.01560604740831853
0.007770000000000001      -0.002775000000000001    -0.5861966486293012      -0.016162117114245086
0.007910000000000002      -0.002775000000000001    -0.5656588989838947      -0.016609882498123337
0.008050000000000002      -0.002775000000000001    -0.5454166374305782      -0.016961206400209535
0.008190000000000001      -0.002775000000000001    -0.5255026216782115      -0.017227048965575305
0.00833                   -0.002775000000000001    -0.5059433455607526      -0.017417523358124576
0.00847                   -0.002775000000000001    -0.4867592247413552      -0.017542193981734712
0.008610000000000001      -0.002775000000000001    -0.4679664802724525      -0.017609718058022028
0.00875                   -0.002775000000000001    -0.44957702864427973     -0.01762793492985704
0.008890000000000002      -0.002775000000000001    -0.4315989838820565      -0.01760391625040102
0.009030000000000002      -0.002775000000000001    -0.4140371521574875      -0.017544009312214892
0.009170000000000001      -0.002775000000000001    -0.3968934573805101      -0.017453892140950163
0.00931                   -0.002775000000000001    -0.3801673387573794      -0.01733861679585103
0.00945                   -0.002775000000000001    -0.36385608709664746     -0.017202671105387667
0.009590000000000001      -0.002775000000000001    -0.3479551805384719      -0.017050023737820677
0.00973                   -0.002775000000000001    -0.3324585736255141      -0.01688418274470102
0.009870000000000002      -0.002775000000000001    -0.31735891415594364     -0.01670823301173733
0.010010000000000002      -0.002775000000000001    -0.3026477836335994      -0.016524893173234516
0.010150000000000001      -0.002775000000000001    -0.2883158999304688      -0.016336545939645647
0.010290000000000002      -0.002775000000000001    -0.27435332720770134     -0.016145277711265348
0.010430000000000002      -0.002775000000000001    -0.26074951657300927     -0.015952898594576662
0.010570000000000001      -0.002775000000000001    -0.24749343732524495     -0.015760976335172455
0.01071                   -0.002775000000000001    -0.23457379569608883     -0.015570870056025468
0.010850000000000002      -0.002775000000000001    -0.22197904340539623     -0.01538380390336319
0.010990000000000002      -0.002775000000000001    -0.209697479900731       -0.015200815171352031
0.011130000000000001      -0.002775000000000001    -0.1977173380160333      -0.015022797828379196
0.01127                   -0.002775000000000001    -0.1860268087637917      -0.014850514201473382
0.01141                   -0.002775000000000001    -0.17461410384022502     -0.014684616987252024
0.01155                   -0.002775000000000001    -0.16346751239468743     -0.014525663809413336
0.01169                   -0.002775000000000001    -0.15257542436399793     -0.014374133391533402
0.011830000000000002      -0.002775000000000001    -0.14192634634773027     -0.01423042253321353
0.011970000000000001      -0.002775000000000001    -0.13150891986160873     -0.01409486429583932
0.012110000000000003      -0.002775000000000001    -0.12131197495157547     -0.013967734666230747
0.012250000000000002      -0.002775000000000001    -0.11132450547391091     -0.013849253308770784
0.012390000000000002      -0.002775000000000001    -0.10153571449395257     -0.013739600719493492
0.012530000000000001      -0.002775000000000001    -0.09193500446944367     -0.013638924167916056
0.01267                   -0.002775000000000001    -0.08251200609377782     -0.01354732371581095
0.012810000000000002      -0.002775000000000001    -0.07325659422634717     -0.013464867347168287
0.012950000000000001      -0.002775000000000001    -0.06415875695462403     -0.013391591198741025
0.013090000000000001      -0.002775000000000001    -0.05520868424213293     -0.013327561308143707
0.01323                   -0.002775000000000001    -0.0463969430146043      -0.01327277680286575
0.01337                   -0.002775000000000001    -0.037714214078919416    -0.013227230153449145
0.013510000000000003      -0.002775000000000001    -0.029151465337368985    -0.013190955475446173
0.013650000000000002      -0.002775000000000001    -0.020699583609118038    -0.01316379071900616
0.013790000000000002      -0.002775000000000001    -0.012350304145194392    -0.0131458256752208
0.013930000000000001      -0.002775000000000001    -0.0040949471089233615   -0.013136793784876737
7.000000000000001E-5      -0.002625000000000001    -0.02386681682509448     0.2539591348952063
2.1E-4                    -0.002625000000000001    -0.07154089711250461     0.25359804774690525
3.5000000000000005E-4     -0.002625000000000001    -0.11906981328901327     0.2528746679535789
4.900000000000001E-4      -0.002625000000000001    -0.16634742164940133     0.25177655493018936
6.3E-4                    -0.002625000000000001    -0.21327246014526374     0.25031299030686766
7.7E-4                    -0.002625000000000001    -0.259735747027937       0.24847308440040827
9.100000000000001E-4      -0.002625000000000001    -0.305636717894887       0.24625076844904692
0.0010500000000000002     -0.002625000000000001    -0.3508643429038395      0.24363956293495792
0.00119                   -0.002625000000000001    -0.39530809924942206     0.24063414968781838
0.00133                   -0.002625000000000001    -0.43885454827696585     0.23722891242362326
0.00147                   -0.002625000000000001    -0.48138944568881503     0.23341989841939914
0.00161                   -0.002625000000000001    -0.5227964269890353      0.22920484663222926
0.0017500000000000003     -0.002625000000000001    -0.562959010140205       0.22458384249953922
0.00189                   -0.002625000000000001    -0.601760963155042       0.21955967091064388
0.0020300000000000006     -0.002625000000000001    -0.6390874280812979      0.21413819797777028
0.00217                   -0.002625000000000001    -0.6748279237190734      0.20832818699194583
0.0023100000000000004     -0.002625000000000001    -0.708871159798891       0.20214217331558607
0.0024500000000000004     -0.002625000000000001    -0.7411133556416524      0.19559684017910806
0.0025900000000000003     -0.002625000000000001    -0.7714577769236233      0.18871186727038233
0.0027300000000000002     -0.002625000000000001    -0.7998145966982981      0.18151008046051437
0.00287                   -0.002625000000000001    -0.8261008193642215      0.17401722753136878
0.0030100000000000005     -0.002625000000000001    -0.8502436455363179      0.1662620158287026
0.0031500000000000005     -0.002625000000000001    -0.872180492224042       0.1582752278571512
0.0032900000000000004     -0.002625000000000001    -0.8918616277925989      0.15009023937471666
0.0034300000000000008     -0.002625000000000001    -0.9092410241954378      0.14174497268355848
0.0035700000000000007     -0.002625000000000001    -0.9242916601866968      0.1332710697202396
0.00371                   -0.002625000000000001    -0.9369939294449052      0.12470695868609595
0.00385                   -0.002625000000000001    -0.947352586843597       0.1161420063565895
0.0039900000000000005     -0.002625000000000001    -0.9553883842569919      0.1075812176037374
0.00413                   -0.002625000000000001    -0.9611246741696928      0.09904756102749843
0.0042699999999999995     -0.002625000000000001    -0.96458698170376        0.09058065666333986
0.00441                   -0.002625000000000001    -0.9658249680210187      0.08221628701425768
0.00455                   -0.002625000000000001    -0.9648865670237913      0.07399625196707059
0.00469                   -0.002625000000000001    -0.9618419657635345      0.06595647939822802
0.00483                   -0.002625000000000001    -0.9567707804767044      0.05813327593797032
0.0049700000000000005     -0.002625000000000001    -0.9497627268501588      0.05055943598427024
0.00511                   -0.002625000000000001    -0.9409169113354858      0.04326723372306466
0.00525                   -0.002625000000000001    -0.9303418321273191      0.036285722027093015
0.00539                   -0.002625000000000001    -0.9181545375910303      0.029640513393758363
0.00553                   -0.002625000000000001    -0.9044784201033206      0.023353983709172868
0.00567                   -0.002625000000000001    -0.8894428517766165      0.017444123217406446
0.005809999999999999      -0.002625000000000001    -0.873180982242243       0.011924528995648054
0.00595                   -0.002625000000000001    -0.8558282634403336      0.006804010077965837
0.006090000000000001      -0.002625000000000001    -0.8375206339660357      0.002086528744017701
0.00623                   -0.002625000000000001    -0.8183927586519145      -0.0022287828034254662
0.00637                   -0.002625000000000001    -0.7985763671186918      -0.006147452520315179
0.00651                   -0.002625000000000001    -0.7781986235839663      -0.00967931135178336
0.00665                   -0.002625000000000001    -0.7573806268960678      -0.012837980471699177
0.006790000000000001      -0.002625000000000001    -0.7362353293508959      -0.015639673513743426
0.00693                   -0.002625000000000001    -0.7148708790529227      -0.018104082075869943
0.007070000000000001      -0.002625000000000001    -0.6933848260756502      -0.02025305355810821
0.00721                   -0.002625000000000001    -0.6718640719548948      -0.022108864606663912
0.00735                   -0.002625000000000001    -0.6503877695848642      -0.02369469700235909
0.00749                   -0.002625000000000001    -0.6290260614401546      -0.025033847314970614
0.00763                   -0.002625000000000001    -0.607840291608531       -0.02614926192164816
0.007770000000000001      -0.002625000000000001    -0.5868834447854173      -0.027063151859728643
0.007910000000000002      -0.002625000000000001    -0.5662006611186003      -0.02779670858736632
0.008050000000000002      -0.002625000000000001    -0.5458298298151083      -0.028369896972155282
0.008190000000000001      -0.002625000000000001    -0.5258021733408785      -0.028801341459053994
0.00833                   -0.002625000000000001    -0.5061429085216885      -0.02910825878463162
0.00847                   -0.002625000000000001    -0.4868718597859735      -0.0293064405832562
0.008610000000000001      -0.002625000000000001    -0.46800402742649455     -0.029410264004545824
0.00875                   -0.002625000000000001    -0.4495501610249485      -0.02943274771210013
0.008890000000000002      -0.002625000000000001    -0.43151728805519685     -0.029385617372532133
0.009030000000000002      -0.002625000000000001    -0.4139091948287072      -0.029279396193624668
0.009170000000000001      -0.002625000000000001    -0.39672697208274427     -0.029123260863308572
0.00931                   -0.002625000000000001    -0.37996918395808404     -0.028925775995156965
0.00945                   -0.002625000000000001    -0.3636324331554693      -0.02869454433188136
0.009590000000000001      -0.002625000000000001    -0.3477112622257453      -0.028435975764641123
0.00973                   -0.002625000000000001    -0.3321990184603949      -0.02815586720039972
0.009870000000000002      -0.002625000000000001    -0.3170878004262274      -0.027859315707628226
0.010010000000000002      -0.002625000000000001    -0.3023687087045769      -0.027550805025740477
0.010150000000000001      -0.002625000000000001    -0.2880320111802323      -0.027234269598803696
0.010290000000000002      -0.002625000000000001    -0.27406732537237816     -0.02691314294474925
0.010430000000000002      -0.002625000000000001    -0.26046375483101314     -0.0265904215370913
0.010570000000000001      -0.002625000000000001    -0.2472099915063377      -0.026268721171165525
0.01071                   -0.002625000000000001    -0.2342944570677693      -0.02595031498499727
0.010850000000000002      -0.002625000000000001    -0.22170536786278228     -0.02563716359820551
0.010990000000000002      -0.002625000000000001    -0.20943081382510767     -0.02533097363478654
0.011130000000000001      -0.002625000000000001    -0.19745882715723678     -0.025033207965205237
0.01127                   -0.002625000000000001    -0.1857774276428067      -0.024745123121110726
0.01141                   -0.002625000000000001    -0.17437468399087053     -0.024467796154993865
0.01155                   -0.002625000000000001    -0.16323882734661727     -0.024202133747383597
0.01169                   -0.002625000000000001    -0.15235812972225504     -0.023948929477557456
0.011830000000000002      -0.002625000000000001    -0.14172089144797462     -0.023708860232092226
0.011970000000000001      -0.002625000000000001    -0.13131573430772206     -0.02348244352248157
0.012110000000000003      -0.002625000000000001    -0.12113141206818664     -0.02327012324042809
0.012250000000000002      -0.002625000000000001    -0.11115686536583065     -0.023072266748086545
0.012390000000000002      -0.002625000000000001    -0.1013812366220902      -0.022889175026009952
0.012530000000000001      -0.002625000000000001    -0.09179386552621849     -0.02272107818993516
0.01267                   -0.002625000000000001    -0.08238431151716524     -0.022568151562051685
0.012810000000000002      -0.002625000000000001    -0.07314237327005098     -0.022430518809296408
0.012950000000000001      -0.002625000000000001    -0.06405806187488006     -0.02230828220284126
0.013090000000000001      -0.002625000000000001    -0.055121604761744845    -0.02220143247328813
0.01323                   -0.002625000000000001    -0.046323465927740004    -0.02211004470717467
0.01337                   -0.002625000000000001    -0.037654331737758714    -0.022034084536577393
0.013510000000000003      -0.002625000000000001    -0.02910506732699571     -0.021973441260963393
0.013650000000000002      -0.002625000000000001    -0.020666736970088775    -0.021927906946859706
0.013790000000000002      -0.002625000000000001    -0.012330509311277214    -0.021898002791964535
0.013930000000000001      -0.002625000000000001    -0.004088386311154107    -0.02188298935021674
7.000000000000001E-5      -0.0024750000000000006   -0.02409570135324318     0.35669016643481877
2.1E-4                    -0.0024750000000000006   -0.07222580482821535     0.3561865260418194