% Model:              1p44GHz_6mm_bore_mo4.mph
% Version:            COMSOL 6.0.0.405
% Date:               Jul 23 2026, 03:02
% Dimension:          2
% Nodes:              400
% Expressions:        2
% Description:        Arrow surface
% r                       z                        Hrad                     Haxi
3.5000000000000005E-4     -0.0026250000000000006   -0.11906981328901325     0.25287466795357916
0.0010500000000000002     -0.0026250000000000006   -0.35086434290383933     0.24363956293495817
0.0017500000000000003     -0.0026250000000000006   -0.562959010140205       0.2245838424995395
0.0024500000000000004     -0.0026250000000000006   -0.7411133556416525      0.19559684017910825
0.0031500000000000005     -0.0026250000000000006   -0.8721804922240423      0.1582752278571514
0.003850000000000001      -0.0026250000000000006   -0.947352586843597       0.11614200635658957
0.00455                   -0.0026250000000000006   -0.9648865670237914      0.07399625196707067
0.005250000000000001      -0.0026250000000000006   -0.9303418321273189      0.036285722027093
0.00595                   -0.0026250000000000006   -0.8558282634403336      0.006804010077965844
0.006650000000000001      -0.0026250000000000006   -0.7573806268960676      -0.012837980471699234
0.007350000000000002      -0.0026250000000000006   -0.6503877695848639      -0.02369469700235915
0.008050000000000002      -0.0026250000000000006   -0.5458298298151083      -0.028369896972155313
0.00875                   -0.0026250000000000006   -0.44955016102494844     -0.02943274771210017
0.009450000000000002      -0.0026250000000000006   -0.36363243315546917     -0.02869454433188139
0.010150000000000001      -0.0026250000000000006   -0.2880320111802323      -0.027234269598803727
0.010850000000000002      -0.0026250000000000006   -0.22170536786278225     -0.025637163598205538
0.011550000000000001      -0.0026250000000000006   -0.1632388273466171      -0.02420213374738363
0.012250000000000002      -0.0026250000000000006   -0.11115686536583062     -0.02307226674808657
0.012950000000000003      -0.0026250000000000006   -0.06405806187487995     -0.02230828220284128
0.01365                   -0.0026250000000000006   -0.020666736970088882    -0.02192790694685973
3.5000000000000005E-4     -0.0018750000000000004   -0.12838134433002332     0.7789774225324045
0.0010500000000000002     -0.0018750000000000004   -0.37999289474507547     0.7526370407117924
0.0017500000000000003     -0.0018750000000000004   -0.6140104042778675      0.6963965575602065
0.0024500000000000004     -0.0018750000000000004   -0.8133744365448147      0.607713932664817
0.0031500000000000005     -0.0018750000000000004   -0.9598944674867526      0.4909509676313321
0.003850000000000001      -0.0018750000000000004   -1.0411745575238651      0.3578279229794715
0.00455                   -0.0018750000000000004   -1.0541614929025227      0.22401189545982525
0.005250000000000001      -0.0018750000000000004   -1.0049175573041025      0.10419928462756865
0.00595                   -0.0018750000000000004   -0.9088167077780801      0.011789114271257901
0.006650000000000001      -0.0018750000000000004   -0.7883688828250787      -0.047193445415407057
0.007350000000000002      -0.0018750000000000004   -0.6647374126780632      -0.077390110468355
0.008050000000000002      -0.0018750000000000004   -0.5501172922913754      -0.08885714344097319
0.00875                   -0.0018750000000000004   -0.4486660203064678      -0.09022682310526038
0.009450000000000002      -0.0018750000000000004   -0.36052488446996434     -0.08691688707847638
0.010150000000000001      -0.0018750000000000004   -0.2843072164425691      -0.08192291444134023
0.010850000000000002      -0.0018750000000000004   -0.2181893159410986      -0.07680002925118107
0.011550000000000001      -0.0018750000000000004   -0.16033281585013875     -0.07231973369445896
0.012250000000000002      -0.0018750000000000004   -0.10903822366518207     -0.06884009371667134
0.012950000000000003      -0.0018750000000000004   -0.06278875938968949     -0.06650441138108037
0.01365                   -0.0018750000000000004   -0.020249821273771774    -0.06534611463090376
3.5000000000000005E-4     -0.0011250000000000001   -0.14467082545838272     1.3619342942692623
0.0010500000000000002     -0.0011250000000000001   -0.43336288366553316     1.325517609243582
0.0017500000000000003     -0.0011250000000000001   -0.7149842999980343      1.2396281608390574
0.0024500000000000004     -0.0011250000000000001   -0.9652288811977977      1.0876678367539008
0.0031500000000000005     -0.0011250000000000001   -1.148565852613262       0.875678879716481
0.003850000000000001      -0.0011250000000000001   -1.2447273555169023      0.6300757913364431
0.00455                   -0.0011250000000000001   -1.249145216896112       0.3808399585109413
0.005250000000000001      -0.0011250000000000001   -1.167459104280686       0.1558645603671473
0.00595                   -0.0011250000000000001   -1.0192560745561239      -0.014135916782213513
0.006650000000000001      -0.0011250000000000001   -0.8457638701367177      -0.11073207875265151
0.007350000000000002      -0.0011250000000000001   -0.6868419452941877      -0.15016060379206864
0.008050000000000002      -0.0011250000000000001   -0.5538037698975085      -0.15977697587954406
0.00875                   -0.0011250000000000001   -0.443937551833334       -0.15607226919191322
0.009450000000000002      -0.0011250000000000001   -0.3526513646996909      -0.1471657971241614
0.010150000000000001      -0.0011250000000000001   -0.2759605958780881      -0.13699788491628678
0.010850000000000002      -0.0011250000000000001   -0.21068223027230826     -0.12747623492833612
0.011550000000000001      -0.0011250000000000001   -0.15427465338554505     -0.11949425741858669
0.012250000000000002      -0.0011250000000000001   -0.10467755142087742     -0.11343227994906369
0.012950000000000003      -0.0011250000000000001   -0.06019467495599714     -0.10941255764313274
0.01365                   -0.0011250000000000001   -0.019400582542948724    -0.1074323111547585
3.5000000000000005E-4     -3.749999999999999E-4    -0.16062283919810655     2.019045919973353
0.0010500000000000002     -3.749999999999999E-4    -0.4906350057852172      1.993244017479551
0.0017500000000000003     -3.749999999999999E-4    -0.8503247205745641      1.916801188489515
0.0024500000000000004     -3.749999999999999E-4    -1.2155134411692412      1.7016519418833158
0.0031500000000000005     -3.749999999999999E-4    -1.4681871980929857      1.3589471726460678
0.003850000000000001      -3.749999999999999E-4    -1.5919872256409975      0.9615089063270456
0.00455                   -3.749999999999999E-4    -1.586711439337148       0.553852176483631
0.005250000000000001      -3.749999999999999E-4    -1.4544244055448166      0.17522922345839723
0.00595                   -3.749999999999999E-4    -1.2000047467550352      -0.11772196878517519
0.006650000000000001      -3.749999999999999E-4    -0.9091093419178985      -0.2337154034478114
0.007350000000000002      -3.749999999999999E-4    -0.6997765497423664      -0.252306941978939
0.008050000000000002      -3.749999999999999E-4    -0.5471626443359208      -0.24437261833362883
0.00875                   -3.749999999999999E-4    -0.4301324372775966      -0.2277902041052714
0.009450000000000002      -3.749999999999999E-4    -0.33723329201291935     -0.20929801463468603
0.010150000000000001      -3.749999999999999E-4    -0.26152695366325884     -0.19188430435242027
0.010850000000000002      -3.749999999999999E-4    -0.19842054073547424     -0.176886519418117
0.011550000000000001      -3.749999999999999E-4    -0.14467417157983073     -0.16485063091378765
0.012250000000000002      -3.749999999999999E-4    -0.0978851468237385      -0.1559315483015215
0.012950000000000003      -3.749999999999999E-4    -0.05619085348144162     -0.15009956043197284
0.01365                   -3.749999999999999E-4    -0.0180952613227876      -0.14724739699838954
3.5000000000000005E-4     3.7500000000000033E-4    -0.16437438158314585     2.7234688012119905
0.0010500000000000002     3.7500000000000033E-4    -0.5059509318440745      2.733163295538569
0.0017500000000000003     3.7500000000000033E-4    -0.8937232798994047      2.7626363144248707
0.0024500000000000004     3.7500000000000033E-4    -1.3105520321293882      2.49383687595425
0.0031500000000000005     3.7500000000000033E-4    -1.5901350539679777      1.9646875893755709
0.003850000000000001      3.7500000000000033E-4    -1.7229611440289645      1.3693262468965517
0.00455                   3.7500000000000033E-4    -1.7099785288836487      0.7530525926228391
0.005250000000000001      3.7500000000000033E-4    -1.5524647464126307      0.16100718760617508
0.00595                   3.7500000000000033E-4    -1.2511856588975603      -0.37841558367070577
0.006650000000000001      3.7500000000000033E-4    -0.9054280373368339      -0.4260334402294596
0.007350000000000002      3.7500000000000033E-4    -0.6770993391845648      -0.37890152242191877
0.008050000000000002      3.7500000000000033E-4    -0.5187298789916331      -0.33865531871519977
0.00875                   3.7500000000000033E-4    -0.40169465367249224     -0.3026712220258242
0.009450000000000002      3.7500000000000033E-4    -0.31144698834136375     -0.2713675925096043
0.010150000000000001      3.7500000000000033E-4    -0.2395516046104171      -0.2450562325352156
0.010850000000000002      3.7500000000000033E-4    -0.18066334024978217     -0.22374357385726257
0.011550000000000001      3.7500000000000033E-4    -0.131168388349161       -0.20724203616237055
0.012250000000000002      3.7500000000000033E-4    -0.08849058156386491     -0.19527662875625862
0.012950000000000003      3.7500000000000033E-4    -0.050706827307669226    -0.18755375173863487
0.01365                   3.7500000000000033E-4    -0.016315212705205792    -0.18380288656723753
3.5000000000000005E-4     0.0011250000000000006    -0.1505652718124534      3.406022210093718
0.0010500000000000002     0.0011250000000000006    -0.45989251649380464     3.446651286937458
0.0017500000000000003     0.0011250000000000006    -0.7916162156554936      3.5374963414662255
0.0024500000000000004     0.0011250000000000006    -1.1236918174265793      3.2112830967288857
0.0031500000000000005     0.0011250000000000006    -1.3540322407773115      2.518338602201893
0.003850000000000001      0.0011250000000000006    -1.4631767808676641      1.7373352479247832
0.00455                   0.0011250000000000006    -1.447664554832773       0.925565232370488
0.005250000000000001      0.0011250000000000006    -1.3120766687960446      0.13900778412012396
0.00595                   0.0011250000000000006    -1.0730616753367967      -0.5751675258942525
0.006650000000000001      0.0011250000000000006    -0.8052542242014101      -0.6046554303365221
0.007350000000000002      0.0011250000000000006    -0.6066513800927937      -0.5049811453212613
0.008050000000000002      0.0011250000000000006    -0.4625020801689952      -0.43188600788480835
0.00875                   0.0011250000000000006    -0.35548132248320585     -0.37506335589782097
0.009450000000000002      0.0011250000000000006    -0.2736399588519327      -0.3299576057995777
0.010150000000000001      0.0011250000000000006    -0.20919849690791661     -0.2942086053638789
0.010850000000000002      0.0011250000000000006    -0.15701910203694613     -0.2663408545434767
0.011550000000000001      0.0011250000000000006    -0.1135943379356621      -0.24530300909107697
0.012250000000000002      0.0011250000000000006    -0.07644198887129382     -0.2302986370383976
0.012950000000000003      0.0011250000000000006    -0.0437330952786736      -0.2207145711681352
0.01365                   0.0011250000000000006    -0.014060552179290519    -0.21608639115713607
3.5000000000000005E-4     0.0018750000000000008    -0.12391935376944382     3.9987680945561586
0.0010500000000000002     0.0018750000000000008    -0.3762220413429699      4.056584227063279
0.0017500000000000003     0.0018750000000000008    -0.6405882431956248      4.176749809783807
0.0024500000000000004     0.0018750000000000008    -0.9005662037341007      3.7962819934405574
0.0031500000000000005     0.0018750000000000008    -1.0799763773874176      2.9717580982970797
0.003850000000000001      0.0018750000000000008    -1.164526266162931       2.037814271648718
0.00455                   0.0018750000000000008    -1.1512962865636058      1.0658344744009782
0.005250000000000001      0.0018750000000000008    -1.0455486998051229      0.12587399663723647
0.00595                   0.0018750000000000008    -0.8621369768338946      -0.717496098263712
0.006650000000000001      0.0018750000000000008    -0.6555656777220361      -0.7435753813027675
0.007350000000000002      0.0018750000000000008    -0.49822059897455134     -0.6117306182980119
0.008050000000000002      0.0018750000000000008    -0.38057623764133736     -0.5135041395195584
0.00875                   0.0018750000000000008    -0.29194028282816736     -0.4387730672071719
0.009450000000000002      0.0018750000000000008    -0.22395839035388848     -0.38117824905151837
0.010150000000000001      0.0018750000000000008    -0.17060392973393312     -0.33672824694522624
0.010850000000000002      0.0018750000000000008    -0.12764724965717775     -0.30280005069165616
0.011550000000000001      0.0018750000000000008    -0.09211340916850999     -0.2775882026624399
0.012250000000000002      0.0018750000000000008    -0.06187292771853119     -0.2598077914285714
0.012950000000000003      0.0018750000000000008    -0.03535605134452499     -0.2485348056159573
0.01365                   0.0018750000000000008    -0.011360675206696534    -0.24311410692943364
3.5000000000000005E-4     0.0026250000000000015    -0.08999828427835738     4.459694121106987
0.0010500000000000002     0.0026250000000000015    -0.2725076823683711      4.527023973986045
0.0017500000000000003     0.0026250000000000015    -0.4620804933290778      4.664220236099742
0.0024500000000000004     0.0026250000000000015    -0.6472263189287335      4.239539071054841
0.0031500000000000005     0.0026250000000000015    -0.7743773443739659      3.3148841711445174
0.003850000000000001      0.0026250000000000015    -0.8341412484488582      2.265386423029865
0.00455                   0.0026250000000000015    -0.8248421501007329      1.1732083166857503
0.005250000000000001      0.0026250000000000015    -0.7505975673065456      0.11960570868615758
0.00595                   0.0026250000000000015    -0.621752224491558       -0.8199413844627911
0.006650000000000001      0.0026250000000000015    -0.47590017992884287     -0.8455056652689026
0.007350000000000002      0.0026250000000000015    -0.36383461390022426     -0.692649771364691
0.008050000000000002      0.0026250000000000015    -0.2788479423373642      -0.5770152135115655
0.00875                   0.0026250000000000015    -0.21408520861930772     -0.48896516309973076
0.009450000000000002      0.0026250000000000015    -0.1641254506453185      -0.42162267648041046
0.010150000000000001      0.0026250000000000015    -0.12486523658504804     -0.3701975482781055
0.010850000000000002      0.0026250000000000015    -0.0932973539249799      -0.3313538169619246
0.011550000000000001      0.0026250000000000015    -0.0672457868316384      -0.3027442659834604
0.012250000000000002      0.0026250000000000015    -0.045128599474785834    -0.28270591499608894
0.012950000000000003      0.0026250000000000015    -0.025772575717707764    -0.27006238372520425
0.01365                   0.0026250000000000015    -0.008278899233422942    -0.26399979523419204
3.5000000000000005E-4     0.0033750000000000013    -0.05203436923149682     4.765439266580751
0.0010500000000000002     0.0033750000000000013    -0.15739668544653648     4.8380471694057015
0.0017500000000000003     0.0033750000000000013    -0.266489652155482       4.985150810671315
0.0024500000000000004     0.0033750000000000013    -0.3727764024990955      4.530541551243383
0.0031500000000000005     0.0033750000000000013    -0.44567504179274775     3.5399744990408273
0.003850000000000001      0.0033750000000000013    -0.48005430213878947     2.4149779480935285
0.00455                   0.0033750000000000013    -0.4750954543236162      1.2446136258318419
0.005250000000000001      0.0033750000000000013    -0.43316747340036493     0.11722679553945387
0.00595                   0.0033750000000000013    -0.3599782455443941      -0.8852888202113782
0.006650000000000001      0.0033750000000000013    -0.2767817740602414      -0.9110558031246996
0.007350000000000002      0.0033750000000000013    -0.2126458579673095      -0.7453558914921414
0.008050000000000002      0.0033750000000000013    -0.16366564400244216     -0.6190033038654048
0.00875                   0.0033750000000000013    -0.126051521365332       -0.5225047128729139
0.009450000000000002      0.0033750000000000013    -0.09685124222923128     -0.4487987081533104
0.010150000000000001      0.0033750000000000013    -0.07380149722965015     -0.3927286958882147
0.010850000000000002      0.0033750000000000013    -0.055209646723531444    -0.3505741923708399
0.011550000000000001      0.0033750000000000013    -0.03983039350922631     -0.3196648697349565
0.012250000000000002      0.0033750000000000013    -0.026748981539789406    -0.29809617471161687
0.012950000000000003      0.0033750000000000013    -0.015283470309818727    -0.2845240207168554
0.01365                   0.0033750000000000013    -0.004910698311863455    -0.2780268480174744
3.5000000000000005E-4     0.004125000000000001     -0.012019174975962882    4.903281967331415
0.0010500000000000002     0.004125000000000001     -0.036362097535466445    4.9781290621211784
0.0017500000000000003     0.004125000000000001     -0.061599562396138986    5.129542120342753
0.0024500000000000004     0.004125000000000001     -0.08628143848872845     4.661447311562557
0.0031500000000000005     0.004125000000000001     -0.10340247819549578     3.6413900564726154
0.003850000000000001      0.004125000000000001     -0.11180960767193217     2.482716001849367
0.00455                   0.004125000000000001     -0.11127659470359766     1.2774835386648886
0.005250000000000001      0.004125000000000001     -0.10223942178858396     0.11708951307658774
0.00595                   0.004125000000000001     -0.08584595339657897     -0.9138455813098476
0.006650000000000001      0.004125000000000001     -0.06693992945957777     -0.9398574310144182
0.007350000000000002      0.004125000000000001     -0.05234688598354668     -0.7686284241936404
0.008050000000000002      0.004125000000000001     -0.0411042727059257      -0.6377155364416612
0.00875                   0.004125000000000001     -0.03232362476236445     -0.5376132569736765
0.009450000000000002      0.004125000000000001     -0.025344254641682083    -0.4611739761045436
0.010150000000000001      0.004125000000000001     -0.01967683252649154     -0.4030976968164274
0.010850000000000002      0.004125000000000001     -0.014961518707972757    -0.35950837342724656
0.011550000000000001      0.004125000000000001     -0.01093959564498061     -0.3276018071016295
0.012250000000000002      0.004125000000000001     -0.007422282653151901    -0.3053697874120541
0.012950000000000003      0.004125000000000001     -0.004270123244440583    -0.2913954484969122
0.01365                   0.004125000000000001     -0.0013767761703777658   -0.28471016972415697
3.5000000000000005E-4     0.004875000000000002     0.028472824742506064     4.867895190971317
0.0010500000000000002     0.004875000000000002     0.08607537901443155      4.942256298196525
0.0017500000000000003     0.004875000000000002     0.145562875017485        5.092767520744901
0.0024500000000000004     0.004875000000000002     0.20324938470035592      4.6284593067245305
0.0031500000000000005     0.004875000000000002     0.24236375886036116      3.6163613173198637
0.003850000000000001      0.004875000000000002     0.26010776545189623      2.466695081499496
0.00455                   0.004875000000000002     0.256157880746943        1.2706184498264717
0.005250000000000001      0.004875000000000002     0.2320479370948832       0.11862572625198814
0.00595                   0.004875000000000002     0.19119994486882835      -0.9054182750578448
0.006650000000000001      0.004875000000000002     0.14527124144254738      -0.9315202447059326
0.007350000000000002      0.004875000000000002     0.10985493736569693      -0.7618930491559684
0.008050000000000002      0.004875000000000002     0.08293873586420375      -0.6324299080989679
0.00875                   0.004875000000000002     0.06251643192738106      -0.5335575410922175
0.009450000000000002      0.004875000000000002     0.046972231016414775     -0.4581028305266393
0.010150000000000001      0.004875000000000002     0.03502285960046007      -0.40077968563448296
0.010850000000000002      0.004875000000000002     0.025687481059974746     -0.3577435028480399
0.011550000000000001      0.004875000000000002     0.01822240447455285      -0.32622974448488146
0.012250000000000002      0.004875000000000002     0.01207749353634415      -0.30426218212228073
0.012950000000000003      0.004875000000000002     0.00683871253818721      -0.29044922981642446
0.01365                   0.004875000000000002     0.002187280557666698     -0.2838396434493328
3.5000000000000005E-4     0.0056250000000000015    0.06791773482210818      4.660463156866071
0.0010500000000000002     0.0056250000000000015    0.20550624973516488      4.7314814430880725
0.0017500000000000003     0.0056250000000000015    0.3480515618708969       4.8757108842092025
0.0024500000000000004     0.0056250000000000015    0.4867936905315848       4.432238319451318
0.0031500000000000005     0.0056250000000000015    0.5814410336782176       3.46536355753953
0.003850000000000001      0.0056250000000000015    0.625039076026504        2.3673057214752626
0.00455                   0.0056250000000000015    0.6165367720371726       1.2243892720388365
0.005250000000000001      0.0056250000000000015    0.5593611343526925       0.12217919404295992
0.00595                   0.0056250000000000015    0.4616187088257966       -0.8598028311712661
0.006650000000000001      0.0056250000000000015    0.35150176187722204      -0.8859279088790893
0.007350000000000002      0.0056250000000000015    0.2667790515777945       -0.7251604867823775
0.008050000000000002      0.0056250000000000015    0.20255871733205427      -0.6032762264700696
0.00875                   0.0056250000000000015    0.15384506247569932      -0.5105281018958626
0.009450000000000002      0.0056250000000000015    0.11662029344043681      -0.43978372980194486
0.010150000000000001      0.0056250000000000015    0.08776445280480112      -0.3859517299657317
0.010850000000000002      0.0056250000000000015    0.06493892505018586      -0.345430409758931
0.011550000000000001      0.0056250000000000015    0.046424403025257154     -0.3156729789961448
0.012250000000000002      0.0056250000000000015    0.030959337404943502     -0.29487711655621074
0.012950000000000003      0.0056250000000000015    0.01760519396272809      -0.28177563373923104
0.01365                   0.0056250000000000015    0.005643114813089919     -0.2754989859728889
3.5000000000000005E-4     0.006375000000000002     0.10454699405550127      4.289048576978213
0.0010500000000000002     0.006375000000000002     0.3169656639052729       4.353116582490177
0.0017500000000000003     0.006375000000000002     0.5384633442009391       4.484733992402333
0.0024500000000000004     0.006375000000000002     0.7552644289047166       4.077747647572814
0.0031500000000000005     0.006375000000000002     0.9039731866015116       3.1919558874740184
0.003850000000000001      0.006375000000000002     0.9729308858701887       2.187101122234094
0.00455                   0.006375000000000002     0.9599593244109127       1.1406749747419653
0.005250000000000001      0.006375000000000002     0.8700350033557124       0.12909797236111614
0.00595                   0.006375000000000002     0.71607772900884         -0.7765767175776325
0.006650000000000001      0.006375000000000002     0.5431443708640671       -0.8031031939751023
0.007350000000000002      0.006375000000000002     0.41088528103515837      -0.6590335476981071
0.008050000000000002      0.006375000000000002     0.31165412252199826      -0.5513072606836558
0.00875                   0.006375000000000002     0.2370240554066264       -0.46969997713684314
0.009450000000000002      0.006375000000000002     0.18020830313359665      -0.40729196185917743
0.010150000000000001      0.006375000000000002     0.13612225091769678      -0.35950919658893615
0.010850000000000002      0.006375000000000002     0.10109748420845178      -0.3232822100172044
0.011550000000000001      0.006375000000000002     0.07251459472757434      -0.296499571932388
0.012250000000000002      0.006375000000000002     0.0484861550063341       -0.27767951627639775
0.012950000000000003      0.006375000000000002     0.027622018760326297     -0.265775344459713
0.01365                   0.006375000000000002     0.00886205439350006      -0.2600585614722117
3.5000000000000005E-4     0.007125000000000003     0.13575144299317762      3.7706722631759906
0.0010500000000000002     0.007125000000000003     0.4134862742459178       3.8218539610777253
0.0017500000000000003     0.007125000000000003     0.7077605010293859       3.93138310711141
0.0024500000000000004     0.007125000000000003     0.9993989215297573       3.5733845364518717
0.0031500000000000005     0.007125000000000003     1.2009025340706123       2.802105231770382
0.003850000000000001      0.007125000000000003     1.2950722945075386       1.9301803962610955
0.00455                   0.007125000000000003     1.2784621832070733       1.0223882607057906
0.005250000000000001      0.007125000000000003     1.1564253482798794       0.14205647874023347
0.00595                   0.007125000000000003     0.9458442351099519       -0.6539205635394811
0.006650000000000001      0.007125000000000003     0.7105497186325197       -0.68253685329705
0.007350000000000002      0.007125000000000003     0.5335441971421242       -0.5649085781915318
0.008050000000000002      0.007125000000000003     0.40373609079294737      -0.478908145028962
0.00875                   0.007125000000000003     0.3075329771089046       -0.41349077378774746
0.009450000000000002      0.007125000000000003     0.2346508388113186       -0.36267390727907606
0.010150000000000001      0.007125000000000003     0.17799236974113414      -0.32306249672156856
0.010850000000000002      0.007125000000000003     0.13272797039614748      -0.292541435765976
0.011550000000000001      0.007125000000000003     0.09552982252111572      -0.2696797724123088
0.012250000000000002      0.007125000000000003     0.06404427924629232      -0.2534555790662448
0.012950000000000003      0.007125000000000003     0.03655030030514673      -0.24312333581034415
0.01365                   0.007125000000000003     0.011736986060831657     -0.2381417374435881
3.5000000000000005E-4     0.007875000000000004     0.1568512888530818       3.1372965598642213
0.0010500000000000002     0.007875000000000004     0.48196111396338137      3.163964860639379
0.0017500000000000003     0.007875000000000004     0.8412435600850917       3.2308635117969735
0.0024500000000000004     0.007875000000000004     1.2104786709633995       2.928391224034184
0.0031500000000000005     0.007875000000000004     1.4647449545328206       2.3035405538067772
0.003850000000000001      0.007875000000000004     1.5842359014345944       1.60121103610186
0.00455                   0.007875000000000004     1.5671399350009072       0.8716385765627618
0.005250000000000001      0.007875000000000004     1.416348316470141        0.1647499622211452
0.00595                   0.007875000000000004     1.1440966396294898       -0.48407767027304327
0.006650000000000001      0.007875000000000004     0.839518492815837        -0.5216157336375872
0.007350000000000002      0.007875000000000004     0.6235233181304443       -0.44642253631337847
0.008050000000000002      0.007875000000000004     0.47207793011808175      -0.3909141700005129
0.00875                   0.007875000000000004     0.3614699674159324       -0.34599052289988863
0.009450000000000002      0.007875000000000004     0.2775874102785698       -0.3090106300750151
0.010150000000000001      0.007875000000000004     0.2118648837306781       -0.27887363410373167
0.010850000000000002      0.007875000000000004     0.1588276726137388       -0.2548867446101522
0.011550000000000001      0.007875000000000004     0.11480027374379523      -0.23649860158056837
0.012250000000000002      0.007875000000000004     0.07720441187651131      -0.2232389251690263
0.012950000000000003      0.007875000000000004     0.04415113878896635      -0.2147062097226262
0.01365                   0.007875000000000004     0.014192111936711311     -0.21056802054599988
3.5000000000000005E-4     0.008625000000000002     0.16117729825679883      2.446592215058582
0.0010500000000000002     0.008625000000000002     0.49660907492551376      2.4345550365188626
0.0017500000000000003     0.008625000000000002     0.8864168419008873       2.3992635670286067
0.0024500000000000004     0.008625000000000002     1.3722643636236296       2.1495778117163105
0.0031500000000000005     0.008625000000000002     1.6662217323474884       1.7085063194804935
0.003850000000000001      0.008625000000000002     1.8062920769781172       1.2052402117327194